[moleculetype]
; molname      nrexcl
  POPE          1

[atoms]
; id 	type 	resnr 	residu 	atom 	cgnr 	charge
   1 	Q4p      1 	POPE 	NH3 	 1 	1.0 	
   2 	Q5 	 1 	POPE 	PO4 	 2 	-1.0 	
   3 	SN4a 	 1 	POPE 	GL1 	 3 	0 	
   4 	N4a 	 1 	POPE 	GL2 	 4 	0 	
   5 	C1 	 1 	POPE 	C1A 	 5 	0 	
   6 	C4h	 1 	POPE 	D2A 	 6 	0 	
   7 	C1 	 1 	POPE 	C3A 	 7 	0 	
   8 	C1 	 1 	POPE 	C4A 	 8 	0 	
   9 	C1 	 1 	POPE 	C1B 	 9 	0 	
  10 	C1 	 1 	POPE 	C2B 	10 	0 	
  11 	C1 	 1 	POPE 	C3B 	11 	0 	
  12 	C1 	 1 	POPE 	C4B 	12 	0 	

[bonds]
;  i  j 	funct 	length 	force.c.
   1  2 	1 	0.33 	7000 	
   2  3 	1 	0.42 	1350 	
   3  4 	1 	0.312	2500 	
   3  5 	1 	0.47 	5000 	
   5  6 	1 	0.47 	3800 	
   6  7 	1 	0.47 	3800 	
   7  8 	1 	0.47 	3800 	
   4  9 	1 	0.47 	3600 	
   9 10 	1 	0.47 	3800 	
  10 11 	1 	0.47 	3800 	
  11 12 	1 	0.47 	3800 	

[angles]
;  i  j  k 	funct 	angle 	force.c.
   2  3  4 	2 	108.0 	21.5 	
   2  3  5 	2 	139.1   31.2 	
   3  5  6 	2 	180.0 	35.0 	
   5  6  7 	2 	120.0 	35.0 	
   6  7  8 	2 	180.0 	35.0 	
   4  9 10 	2 	180.0 	35.0 	
   9 10 11 	2 	180.0 	35.0 	
  10 11 12 	2 	180.0 	35.0 	

 
;;;;;; Martini lipid topology for C16:0/20:3 PE (PQPE)
;
; Description:
;   A general model phosphatidylethanolamine (PE) lipid corresponding to atomistic e.g. C16:0/C20:3(5c,8c,11c)  1-palmitoyl-2-mead acid tails.
; Parameterization:
;   This topology follows the standard Martini 3 lipid definitions for building blocks.  Further optimization in the bonded parameters are currently on development.
;
;@INSANE alhead=E P, allink=G G, altail=CDDDC CCCC, alname=PQPE, charge=0.0
;@RESNTEST PQP==PQPE if: atoms[0]==NH3
;@BEADS NH3 PO4 GL1 GL2 C1A D2A D3A D4A C4A C1B C2B C3B C4B 
;@BONDS NH3-PO4 PO4-GL1 GL1-GL2 GL1-C1A C1A-D2A D2A-D3A D3A-D4A D4A-C4A GL2-C1B C1B-C2B C2B-C3B C3B-C4B 
;
